VARIABLES = "x"
 "y"
 "z"
 "rho"
 "u"
 "v"
 "w"
 "p"
 "T"
 "mu"
 "Ma"
ZONE
DT=(DOUBLE,DOUBLE,DOUBLE,DOUBLE,DOUBLE,DOUBLE,DOUBLE,DOUBLE,DOUBLE,DOUBLE,DOUBLE)
                 0.9144                       0                   0.001       0.040164171147321       0.263231445282607   9.91930905432574E-008  -4.25096444300629E-032        2555.11088487705        221.658940583722   1.44901277058418E-005     0.00088195059787567 
                 0.9144   5.00250125062531E-006                   0.001      0.0401208924650178        1.33427350318918   1.87050488242373E-006                       0        2555.11089098807        221.898090433801   1.45031436251355E-005     0.00446770900879075 
                 0.9144   1.00050025012506E-005                   0.001      0.0400679531743674        2.65203359640016   6.65035768666374E-006  -1.72423914692828E-031        2555.11089994771         222.19127967582   1.45190929173972E-005     0.00887452718713652 
                 0.9144   1.50075037518759E-005                   0.001      0.0400154564459343        3.96810808138098   1.46580190444883E-005  -5.86348033045172E-032        2555.11090889519        222.482812091125   1.45349426872574E-005      0.0132697389114985 
                 0.9144   2.00100050025013E-005                   0.001      0.0399633464697086        5.28275226835658   2.55200291186117E-005                       0        2555.11091782488        222.772893338561   1.45507053237918E-005      0.0176549375818206 
                 0.9144   2.50125062531266E-005                   0.001      0.0399116940337994        6.59574598186753   3.98036323812747E-005  -9.50537393246507E-032        2555.11092673749        223.061252725135   1.45663646356958E-005       0.022028420733527 
                 0.9144   3.00150075037519E-005                   0.001      0.0398604438086623        7.90725951853042   5.71024793849827E-005  -6.83334760177774E-031        2555.11093563272         223.34808757785   1.45819326318923E-005      0.0263915474813263 
                 0.9144   3.50175087543772E-005                   0.001      0.0398095869870301        9.21735357887671    7.7385711542625E-005  -6.00176779698904E-031         2555.1109445136        223.633426792136   1.45974111001826E-005      0.0307446352386837 
                 0.9144   4.00200100050025E-005                   0.001      0.0397591106878578        10.5260538373613    0.000100561303919666  -2.87056924258532E-033        2555.11095337918        223.917311105445   1.46128026047204E-005      0.0350879727493052 
                 0.9144   4.50225112556278E-005                   0.001      0.0397091129236735        11.8330502850357    0.000127435007090744                       0         2555.1109622302        224.199359638152   1.46280844545102E-005      0.0394192020709869 
                 0.9144   5.00250125062531E-005                   0.001      0.0396594986343781        13.1386830767155    0.000157302076755165  -8.85788667731674E-032        2555.11097107027        224.479927986362   1.46432780215295E-005      0.0437407546708599 
                 0.9144   5.50275137568784E-005                   0.001      0.0396102171321858        14.4431260963117    0.000189779351802706  -1.70038577720251E-031        2555.11097990065        224.759206125906   1.46583947206686E-005      0.0480539050231628 
                 0.9144   6.00300150075038E-005                   0.001      0.0395613174399692        15.7461582405336    0.000225232235765914  -1.70038577720251E-031         2555.1109887165        225.036995656378   1.46734228643861E-005      0.0523573045799434 
                 0.9144   6.50325162581291E-005                   0.001      0.0395129092640433        17.0474746391485    0.000264631743616668  -8.88403944282319E-032        2555.11099752287        225.312863010668   1.46883367189021E-005      0.0566484522846916 
                 0.9144   7.00350175087544E-005                   0.001      0.0394647049250891        18.3480648501616    0.000305667730904195                       0        2555.11100632428        225.587929316078   1.47032030048317E-005       0.060934486813195 
                 0.9144   7.50375187593797E-005                   0.001      0.0394170849956449        19.6465084337853    0.000351377504677402                       0        2555.11101510723        225.860682415987   1.47179321811957E-005      0.0652057171856849 
                 0.9144    8.0040020010005E-005                   0.001      0.0393696663205521        20.9442853534896    0.000398777935028531   -5.7917858186922E-033        2555.11102389018        226.132637686548   1.47326140685535E-005      0.0694720602021266 
                 0.9144   8.50425212606303E-005                   0.001      0.0393227620311231        22.2401597905057    0.000450339050499809  -2.72013478382181E-032        2555.11103265731        226.402537737428   1.47471744179264E-005      0.0737253830320487 
                 0.9144   9.00450225112556E-005                   0.001      0.0392760637760164         23.535354696892    0.000503662813578038  -4.25096444300618E-032        2555.11104142527        226.671613124078   1.47616860018899E-005      0.0779737310237263 
                 0.9144    9.5047523761881E-005                   0.001      0.0392299286448028        24.8284633529255    0.000561608241018226  -4.25096444300624E-032        2555.11105017743        226.938416528474    1.4776063547742E-005       0.082207870716585 
                 0.9144    0.000100050025012506                   0.001      0.0391838477705235         26.121443815936     0.00062007247505142  -4.15734493072386E-032        2555.11105893396        227.205004309917   1.47904283095393E-005      0.0864408423338446 
                 0.9144    0.000105052526263132                   0.001      0.0391385374525594        27.4115800227734    0.000684976987188582  -2.36612447286163E-032        2555.11106767251        227.468451361283    1.4804608236679E-005      0.0906544841147819 
                 0.9144    0.000110055027513757                   0.001      0.0390932271345953        28.7017162296109    0.000749881499325744  -5.74904014999406E-033        2555.11107641105         227.73189841265   1.48187881638187E-005      0.0948681258957192 
                 0.9144    0.000115057528764382                   0.001        0.03904849865056        29.9898236680483    0.000819853818777205                       0        2555.11108514758        227.992955747064   1.48328276914038E-005      0.0990675627318501 
                 0.9144    0.000120060030015008                   0.001      0.0390040708037937        31.2767707750784    0.000892337087694735                       0        2555.11109387441        228.252769971811   1.48467943265355E-005       0.103259358795954 
                 0.9144    0.000125062531265633                   0.001      0.0389596729566263        32.5636847749842    0.000965159884820564                       0        2555.11110260673        228.512464577139   1.48607538680155E-005       0.107450619337367 
                 0.9144    0.000130065032516258                   0.001       0.038916186894255        33.8472222284935      0.0010458938145741                       0        2555.11111132488        228.768353225232   1.48744907234377E-005       0.111619215079508 
                 0.9144    0.000135067533766883                   0.001      0.0388727010143177         35.130753678792     0.00112662377113482                       0        2555.11112004262        229.024240730831   1.48882275184546E-005       0.115787791915351 
                 0.9144    0.000140070035017509                   0.001       0.038829380274067        36.4137726973809     0.00120892565221795                       0        2555.11112876615        229.279436572966   1.49019238597388E-005       0.119952557487685 
                 0.9144    0.000145072536268134                   0.001      0.0387868974973481        37.6936521094204     0.00129862213653254                       0        2555.11113747833        229.531085403604   1.49154133779693E-005       0.124096524413155 
                 0.9144    0.000150075037518759                   0.001      0.0387444147206292          38.97353152146     0.00138831862084714                       0         2555.1111461905        229.782734234241   1.49289028961998E-005       0.128240491338625 
                 0.9144    0.000155077538769385                   0.001      0.0387019733730364        40.2533506757574      0.0014784979977479                       0        2555.11115490945        230.034211487486   1.49423823395222E-005       0.132383695103905 
                 0.9144     0.00016008004002001                   0.001      0.0386605560663329        41.5293385646178     0.00157794208269242                       0        2555.11116362111        230.281292165052   1.49556063068898E-005       0.136501674772186 
                 0.9144    0.000165082541270635                   0.001      0.0386191389418566        42.8053197907604     0.00167738081551735                       0        2555.11117233233        230.528371665685   1.49688302124487E-005        0.14061963369133 
                 0.9144    0.000170085042521261                   0.001      0.0385777218173803         44.081301016903     0.00177681954834228                       0        2555.11118104355        230.775451166319   1.49820541180076E-005       0.144737592610474 
                 0.9144    0.000175087543771886                   0.001      0.0385370193977378        45.3547598903421     0.00188308151023758  -1.59022464838402E-033        2555.11118976581        231.019424273667   1.49950980343717E-005       0.148838500633716 
                 0.9144    0.000180090045022511                   0.001      0.0384967316293687         46.626587010726     0.00199309841457924  -1.59022464838402E-033        2555.11119848204        231.261584462732   1.50080370846896E-005       0.152929056984175 
                 0.9144    0.000185092546273137                   0.001      0.0384564438609997          47.89841413111     0.00210311531892089  -1.59022464838402E-033        2555.11120719827        231.503744651796   1.50209761350076E-005       0.157019613334634 
                 0.9144    0.000190095047523762                   0.001      0.0384161560926306        49.1702412514939     0.00221313222326254  -1.59022464838402E-033         2555.1112159145        231.745904840861   1.50339151853255E-005       0.161110169685094 
                 0.9144    0.000195097548774387                   0.001      0.0383769719763622        50.4380992875976     0.00233390947965738  -3.18044929676807E-033        2555.11122465093        231.983182765184   1.50465725798761E-005       0.165174440374018 
                 0.9144    0.000200100050025012                   0.001      0.0383378781380331        51.7055064821862     0.00245540537864912  -3.18044929676809E-033        2555.11123337981        232.220053715766    1.5059206621396E-005       0.169236215185408 
                 0.9144    0.000205102551275638                   0.001       0.038298784299704        52.9729136767748     0.00257690127764086  -3.18044929676809E-033        2555.11124210869        232.456924666348   1.50718406629159E-005       0.173297989996798 
                 0.9144    0.000210105052526263                   0.001       0.038259690461375        54.2403208713634     0.00269839717663261  -3.18044929676809E-033        2555.11125083756         232.69379561693   1.50844747044358E-005       0.177359764808188 
                 0.9144    0.000215107553776888                   0.001      0.0382217158713269        55.5036812031413     0.00283113312056839  -1.59022464838406E-033         2555.1112595955        232.925624850321   1.50968191809941E-005       0.181395105246413 
                 0.9144    0.000220110055027514                   0.001      0.0381838810992602        56.7663924248825     0.00296507883132861  -1.59022464838406E-033        2555.11126834668        233.156816079544   1.51091271479413E-005       0.185426748169262 
                 0.9144    0.000225112556278139                   0.001      0.0381460463271935        58.0291036466238     0.00309902454208882  -1.59022464838406E-033        2555.11127709787        233.388007308766   1.51214351148885E-005        0.18945839109211 
                 0.9144    0.000230115057528764                   0.001      0.0381082115551268         59.291814868365     0.00323297025284904  -1.59022464838406E-033        2555.11128584906        233.619198537989   1.51337430818357E-005       0.193490034014958 
                 0.9144     0.00023511755877939                   0.001       0.038071039395282        60.5521727761904     0.00337386762525798   3.63427822731246E-032        2555.11129462749        233.847349762129   1.51458772271196E-005       0.197506334035512 
                 0.9144    0.000240120060030015                   0.001      0.0380345290625158        61.8099011236741     0.00352130945630783   1.08634103244055E-031        2555.11130341315        234.072449629119   1.51578371431856E-005       0.201506537126551 
                 0.9144     0.00024512256128064                   0.001      0.0379980187297496        63.0676294711577     0.00366875128735769   1.80925424214986E-031         2555.1113121988        234.297549496109   1.51697970592516E-005        0.20550674021759 
                 0.9144    0.000250125062531266                   0.001      0.0379615083969835        64.3253578186414     0.00381619311840755   2.53216745185917E-031        2555.11132098446        234.522649363099   1.51817569753176E-005       0.209506943308629 
                 0.9144    0.000255127563781891                   0.001      0.0379249980642173         65.583086166125      0.0039636349494574   3.25508066156849E-031        2555.11132977012        234.747749230089   1.51937168913836E-005       0.213507146399668 
                 0.9144    0.000260130065032516                   0.001      0.0378895024802869        66.8371105256036     0.00412198509434331   3.44847829385655E-031        2555.11133860289        234.968092450002    1.5205406269482E-005       0.217483903552105 
                 0.9144    0.000265132566283142                   0.001      0.0378543818601596        68.0895571834048     0.00428405073524605   3.44847829385655E-031        2555.11134743821        235.186667564553   1.52169952522304E-005       0.221451415512983 
                 0.9144    0.000270135067533767                   0.001      0.0378192612400323        69.3420038412059     0.00444611637614878   3.44847829385655E-031        2555.11135627352        235.405242679104   1.52285842349787E-005       0.225418927473862 
                 0.9144    0.000275137568784392                   0.001      0.0377841406199051        70.5944504990071     0.00460818201705152   3.44847829385655E-031        2555.11136510884        235.623817793655    1.5240173217727E-005        0.22938643943474 
                 0.9144    0.000280140070035018                   0.001      0.0377490199997778        71.8468971568082     0.00477024765795426   3.44847829385655E-031        2555.11137394416        235.842392908207   1.52517622004754E-005       0.233353951395619 
                 0.9144    0.000285142571285643                   0.001      0.0377146968260424        73.0964436839197     0.00494126201034921    3.1111625717977E-031        2555.11138282885         236.05714875516   1.52631350984387E-005       0.237303360224982 
                 0.9144    0.000290145072536268                   0.001      0.0376810307525513        74.3432962619783     0.00511916677385151   2.49827696810659E-031        2555.11139173271        236.268743402717   1.52743293662718E-005       0.241237000685566 
                 0.9144    0.000295147573786893                   0.001      0.0376473646790601        75.5901488400369     0.00529707153735381   1.88539136441547E-031        2555.11140063657        236.480338050275    1.5285523634105E-005       0.245170641146149 
                 0.9144    0.000300150075037519                   0.001      0.0376136986055689        76.8370014180955      0.0054749763008561   1.27250576072436E-031        2555.11140954043        236.691932697832   1.52967179019381E-005       0.249104281606733 
                 0.9144    0.000305152576288144                   0.001      0.0375800325320777        78.0838539961541      0.0056528810643584   6.59620157033246E-032         2555.1114184443        236.903527345389   1.53079121697712E-005       0.253037922067316 
                 0.9144    0.000310155077538769                   0.001      0.0375463664275809         79.330708468824     0.00583078837282673    4.6734553342133E-033        2555.11142734828        237.115122222552   1.53191064493116E-005       0.256971568225434 
                 0.9144    0.000315157578789395                   0.001      0.0375141002327937        80.5722819543951     0.00602480249567559                       0        2555.11143634957        237.319848663885   1.53299144317769E-005       0.260873483152505 
                 0.9144     0.00032016008004002                   0.001       0.037481952766826        81.8132120131676      0.0062198558320216                       0        2555.11144534532        237.523984258553   1.53406893134323E-005       0.264772156464005 
                 0.9144    0.000325162581290645                   0.001      0.0374498053008583        83.0541420719401     0.00641490916836761                       0        2555.11145434107         237.72811985322   1.53514641950878E-005       0.268670829775504 
                 0.9144    0.000330165082541271                   0.001      0.0374176578348906        84.2950721307126     0.00660996250471362                       0        2555.11146333682        237.932255447888   1.53622390767432E-005       0.272569503087004 
                 0.9144    0.000335167583791896                   0.001      0.0373855103689229        85.5360021894851     0.00680501584105963                       0        2555.11147233257        238.136391042556   1.53730139583987E-005       0.276468176398503 
                 0.9144    0.000340170085042521                   0.001      0.0373533629029552        86.7769322482577     0.00700006917740564                       0        2555.11148132832        238.340526637223   1.53837888400541E-005       0.280366849710003 
                 0.9144    0.000345172586293147                   0.001      0.0373225055406216        88.0129461843674     0.00721060986325229                       0         2555.1114904365        238.538176079476   1.53942010970155E-005       0.284236748906255 
                 0.9144    0.000350175087543772                   0.001      0.0372919396518343        89.2476056788448     0.00742422201058529                       0        2555.11149955288        238.734350666529   1.54045310438394E-005       0.288099456759621 
                 0.9144    0.000355177588794397                   0.001       0.037261373763047        90.4822651733222     0.00763783415791829                       0        2555.11150866926        238.930525253582   1.54148609906632E-005       0.291962164612987 
                 0.9144    0.000360180090045022                   0.001      0.0372308078742597        91.7169246677997     0.00785144630525129                       0        2555.11151778564        239.126699840636   1.54251909374871E-005       0.295824872466354 
                 0.9144    0.000365182591295648                   0.001      0.0372002419854724        92.9515841622771     0.00806505845258429                       0        2555.11152690201        239.322874427689    1.5435520884311E-005        0.29968758031972 
                 0.9144    0.000370185092546273                   0.001      0.0371696760966851        94.1862436567546      0.0082786705999173                       0        2555.11153601839        239.519049014742   1.54458508311349E-005       0.303550288173086 
                 0.9144    0.000375187593796899                   0.001      0.0371394260105108        95.4198432220104     0.00849653983266979                       0         2555.1115451801        239.713600066872   1.54560904938553E-005       0.307406530818848 
                 0.9144    0.000380190095047524                   0.001      0.0371105032849558        96.6478595336659     0.00873022839257245                       0        2555.11155445232        239.901287911184   1.54659490955933E-005       0.311232382824854 
                 0.9144    0.000385192596298149                   0.001      0.0370815805594008        97.8758758453213     0.00896391695247511                       0        2555.11156372453        240.088975755496   1.54758076973312E-005       0.315058234830861 
                 0.9144    0.000390195097548774                   0.001      0.0370526578338458        99.1038921569768     0.00919760551237777                       0        2555.11157299674        240.276663599807   1.54856662990691E-005       0.318884086836867 
                 0.9144      0.0003951975987994                   0.001      0.0370237351082907        100.331908468632     0.00943129407228043                       0        2555.11158226896        240.464351444119    1.5495524900807E-005       0.322709938842873 
                 0.9144    0.000400200100050025                   0.001      0.0369948123827357        101.559924780288     0.00966498263218309                       0        2555.11159154117         240.65203928843   1.55053835025449E-005        0.32653579084888 
                 0.9144     0.00040520260130065                   0.001      0.0369658896571807        102.787941091943     0.00989867119208575                       0        2555.11160081338        240.839727132742   1.55152421042829E-005       0.330361642854886 
                 0.9144    0.000410205102551276                   0.001      0.0369369859109623        104.016005524702      0.0101328410365953                       0        2555.11161009686        241.027318323089   1.55250953125821E-005       0.334187438308921 
                 0.9144    0.000415207603801901                   0.001      0.0369097654217318        105.237087902712      0.0103884406880209                       0        2555.11161957564        241.205977520761   1.55344557041068E-005       0.337975994074748 
                 0.9144    0.000420210105052526                   0.001      0.0368825458050169        106.458057052563      0.0106438368174479                       0        2555.11162904664        241.384628839534   1.55438157097461E-005       0.341764215226442 
                 0.9144    0.000425212606303152                   0.001      0.0368553261883019        107.679026202414      0.0108992329468749                       0        2555.11163851764        241.563280158307   1.55531757153855E-005       0.345552436378136 
                 0.9144    0.000430215107553777                   0.001       0.036828106571587        108.899995352265      0.0111546290763019                       0        2555.11164798864        241.741931477081   1.55625357210248E-005        0.34934065752983 
                 0.9144    0.000435217608804402                   0.001       0.036800886954872        110.120964502116      0.0114100252057289                       0        2555.11165745964        241.920582795854   1.55718957266641E-005       0.353128878681524 
                 0.9144    0.000440220110055027                   0.001       0.036773667338157        111.341933651968      0.0116654213351558                       0        2555.11166693064        242.099234114628   1.55812557323035E-005       0.356917099833217 
                 0.9144    0.000445222611305653                   0.001      0.0367464477214421        112.562902801819      0.0119208174645828                       0        2555.11167640164        242.277885433401   1.55906157379428E-005       0.360705320984911 
                 0.9144    0.000450225112556278                   0.001      0.0367196285366381        113.782425818196        0.01218206240478   5.56237008043688E-032         2555.1116859484        242.454358646633   1.55998562785962E-005       0.364485580269599 
                 0.9144    0.000455227613806903                   0.001      0.0366941701212547        114.995903364947      0.0124609161898333   3.82794918172483E-031        2555.11169567034        242.623399576307   1.56086896249959E-005       0.368235513944519 
                 0.9144    0.000460230115057529                   0.001      0.0366687117058714        116.209380911699      0.0127397699748865   7.09966135540603E-031        2555.11170539229        242.792440505982   1.56175229713957E-005       0.371985447619438 
                 0.9144    0.000465232616308154                   0.001       0.036643253290488         117.42285845845      0.0130186237599398   1.03713735290872E-030        2555.11171511424        242.961481435656   1.56263563177954E-005       0.375735381294358 
                 0.9144    0.000470235117558779                   0.001      0.0366177948751046        118.636336005202       0.013297477544993   1.36430857027683E-030        2555.11172483618         243.13052236533   1.56351896641952E-005       0.379485314969277 
                 0.9144    0.000475237618809405                   0.001      0.0365923364597212        119.849813551953      0.0135763313300462   1.69147978764494E-030        2555.11173455813        243.299563295005   1.56440230105949E-005       0.383235248644197 
                 0.9144     0.00048024012006003                   0.001      0.0365668780443378        121.063291098705      0.0138551851150995   2.01865100501305E-030        2555.11174428008        243.468604224679   1.56528563569947E-005       0.386985182319117 
                 0.9144    0.000485242621310655                   0.001      0.0365414196289544        122.276768645456      0.0141340389001527   2.34582222238117E-030        2555.11175400202        243.637645154353   1.56616897033945E-005       0.390735115994036 
                 0.9144    0.000490245122561281                   0.001       0.036515961213571        123.490246192207      0.0144128926852059   2.67299343974928E-030        2555.11176372397        243.806686084028   1.56705230497942E-005       0.394485049668956 
                 0.9144    0.000495247623811906                   0.001      0.0364919483665691        124.697648802444      0.0147124787748114    2.8007916504024E-030        2555.11177371646        243.967613455621   1.56789147824298E-005       0.398204910493044 
                 0.9144    0.000500250125062531                   0.001      0.0364683072297397        125.903137825616      0.0150166631917272   2.90149918008411E-030        2555.11178375242        244.126446386882   1.56871926352303E-005       0.401916015326215 
                 0.9144    0.000505252626313157                   0.001      0.0364446660929102        127.108626848788       0.015320847608643   3.00220670976582E-030        2555.11179378838        244.285279318143   1.56954704880308E-005       0.405627120159387 
                 0.9144    0.000510255127563782                   0.001      0.0364210249560808         128.31411587196      0.0156250320255588   3.10291423944752E-030        2555.11180382435        244.444112249404   1.57037483408314E-005       0.409338224992558 
                 0.9144    0.000515257628814407                   0.001      0.0363973838192514        129.519604895132      0.0159292164424745   3.20362176912923E-030        2555.11181386031        244.602945180665   1.57120261936319E-005        0.41304932982573 
                 0.9144    0.000520260130065033                   0.001      0.0363737426824219        130.725093918305      0.0162334008593903   3.30432929881093E-030        2555.11182389627        244.761778111925   1.57203040464324E-005       0.416760434658901 
                 0.9144    0.000525262631315658                   0.001      0.0363501015455925        131.930582941477      0.0165375852763061   3.40503682849264E-030        2555.11183393224        244.920611043186   1.57285818992329E-005       0.420471539492072 
                 0.9144    0.000530265132566283                   0.001      0.0363264604087631        133.136071964649      0.0168417696932219   3.50574435817435E-030         2555.1118439682        245.079443974447   1.57368597520334E-005       0.424182644325244 
                 0.9144    0.000535267633816908                   0.001      0.0363028192719336        134.341560987821      0.0171459541101377   3.60645188785605E-030        2555.11185400416        245.238276905708    1.5745137604834E-005       0.427893749158415 
                 0.9144    0.000540270135067534                   0.001      0.0362804215437481        135.541669819374      0.0174689541243372   3.47375632092143E-030        2555.11186432239        245.389920369954   1.57530269408319E-005       0.431579652079873 
                 0.9144    0.000545272636318159                   0.001      0.0362586516383894        136.738605267075      0.0178004667896052   3.19465810967563E-030        2555.11187474831        245.537924845375   1.57607197546289E-005       0.435251490626626 
                 0.9144    0.000550275137568784                   0.001      0.0362368817330307        137.935540714776      0.0181319794548733   2.91555989842982E-030        2555.11188517423        245.685929320797    1.5768412568426E-005       0.438923329173379 
                 0.9144     0.00055527763881941                   0.001      0.0362151118276719        139.132476162478      0.0184634921201414   2.63646168718401E-030        2555.11189560015        245.833933796218   1.57761053822231E-005       0.442595167720132 